System from vasp-grace
  1.00000000000000
     19.65881880    0.32867612    0.32918365
      0.02740091    9.60832216    0.13272621
      0.02922498    0.00743114    9.60922077
  Li  B  P  H  S  Cl
  48  1  8  4  40  7
Direct configuration=       1
    0.22350024    0.71841063    0.34069517
    0.72350024    0.71841063    0.34069517
    0.23879195    0.16846942    0.20238963
    0.73879195    0.16846942    0.20238963
    0.16452221    0.86801897    0.07600493
    0.66452221    0.86801897    0.07600493
    0.41452200    0.25022359    0.19379676
    0.91452200    0.25022359    0.19379676
    0.18392066    0.00084906    0.52235185
    0.68392066    0.00084906    0.52235185
    0.31671406    0.91668029    0.34021499
    0.81671406    0.91668029    0.34021499
    0.22350113    0.21840577    0.84068463
    0.72350113    0.21840577    0.84068463
    0.31671483    0.41667671    0.84020968
    0.81671483    0.41667671    0.84020968
    0.09193140    0.04985955    0.31681767
    0.59193140    0.04985955    0.31681767
    0.09193227    0.54986030    0.81681247
    0.59193227    0.54986030    0.81681247
    0.16452231    0.36802051    0.57599956
    0.66452231    0.36802051    0.57599956
    0.18392089    0.50083989    0.02234681
    0.68392089    0.50083989    0.02234681
    0.47350319    0.01491691    0.54418702
    0.97350319    0.01491691    0.54418702
    0.06671538    0.01442642    0.74246175
    0.56671538    0.01442642    0.74246175
    0.34192968    0.99104493    0.87561951
    0.84192968    0.99104493    0.87561951
    0.41452071    0.75022543    0.69379739
    0.91452071    0.75022543    0.69379739
    0.43392542    0.19656959    0.82663133
    0.93392542    0.19656959    0.82663133
    0.48878901    0.87660882    0.99424880
    0.98878901    0.87660882    0.99424880
    0.06671347    0.51443472    0.24245209
    0.56671347    0.51443472    0.24245209
    0.47350098    0.51491259    0.04418020
    0.97350098    0.51491259    0.04418020
    0.43392372    0.69657280    0.32662894
    0.93392372    0.69657280    0.32662894
    0.23879336    0.66846698    0.70238858
    0.73879336    0.66846698    0.70238858
    0.48878915    0.37661449    0.49424356
    0.98878915    0.37661449    0.49424356
    0.34192676    0.49104709    0.37560267
    0.84192676    0.49104709    0.37560267
    0.57787574    0.67694904    0.03772304
    0.32564270    0.70428084    0.03175979
    0.82564270    0.70428084    0.03175979
    0.32564611    0.20427868    0.53176085
    0.82564611    0.20427868    0.53176085
    0.07564352    0.70598423    0.53005321
    0.57564352    0.70598423    0.53005321
    0.07564457    0.20598415    0.03005468
    0.57564457    0.20598415    0.03005468
    0.61291526    0.74780263    0.10764356
    0.54262199    0.60599125    0.11201036
    0.61332756    0.60368597   -0.03457903
    0.54263816    0.75031632   -0.03418273
    0.13900467    0.06920128    0.92443274
    0.63900467    0.06920128    0.92443274
    0.00760365    0.08608996    0.13991178
    0.50760365    0.08608996    0.13991178
    0.25760386    0.81414194    0.91186443
    0.75760386    0.81414194    0.91186443
    0.38432307    0.83959474    0.13966866
    0.88432307    0.83959474    0.13966866
    0.20257004    0.95118587    0.28865980
    0.70257004    0.95118587    0.28865980
    0.13900177    0.56920086    0.42442770
    0.63900177    0.56920086    0.42442770
    0.00760257    0.58609108    0.63991133
    0.50760257    0.58609108    0.63991133
    0.25760639    0.31413969    0.41186693
    0.75760639    0.31413969    0.41186693
    0.38432675    0.33959114    0.63967051
    0.88432675    0.33959114    0.63967051
    0.20257072    0.45118229    0.78865494
    0.70257072    0.45118229    0.78865494
    0.38900483    0.09865325    0.39497883
    0.88900483    0.09865325    0.39497883
    0.27528580    0.07012348    0.66375944
    0.77528580    0.07012348    0.66375944
    0.02528607    0.83798930    0.39590044
    0.52528607    0.83798930    0.39590044
    0.13432491    0.81388435    0.66537317
    0.63432491    0.81388435    0.66537317
    0.45257058    0.96287783    0.77696204
    0.95257058    0.96287783    0.77696204
    0.38900135    0.59865389    0.89497866
    0.88900135    0.59865389    0.89497866
    0.27528017    0.57013015    0.16375969
    0.77528017    0.57013015    0.16375969
    0.02528791    0.33798737    0.89589895
    0.52528791    0.33798737    0.89589895
    0.13432355    0.31388708    0.16537642
    0.63432355    0.31388708    0.16537642
    0.45256916    0.46288118    0.27695644
    0.95256916    0.46288118    0.27695644
    0.07787574    0.67694904    0.03772304
    0.07787759    0.17694708    0.53772974
    0.57787759    0.17694708    0.53772974
    0.32787574    0.71194514    0.50272342
    0.82787574    0.71194514    0.50272342
    0.32787661    0.21194823    0.00272565
    0.82787661    0.21194823    0.00272565
Direct configuration=       2
    0.22350024    0.71841063    0.34069517
    0.72350024    0.71841063    0.34069517
    0.23879195    0.16846942    0.20238963
    0.73879195    0.16846942    0.20238963
    0.16452221    0.86801897    0.07600493
    0.66452221    0.86801897    0.07600493
    0.41452200    0.25022359    0.19379676
    0.91452200    0.25022359    0.19379676
    0.18392066    0.00084906    0.52235185
    0.68392066    0.00084906    0.52235185
    0.31671406    0.91668029    0.34021499
    0.81671406    0.91668029    0.34021499
    0.22350113    0.21840577    0.84068463
    0.72350113    0.21840577    0.84068463
    0.31671483    0.41667671    0.84020968
    0.81671483    0.41667671    0.84020968
    0.09193140    0.04985955    0.31681767
    0.59193140    0.04985955    0.31681767
    0.09193227    0.54986030    0.81681247
    0.59193227    0.54986030    0.81681247
    0.16452231    0.36802051    0.57599956
    0.66452231    0.36802051    0.57599956
    0.18392089    0.50083989    0.02234681
    0.68392089    0.50083989    0.02234681
    0.47350319    0.01491691    0.54418702
    0.97350319    0.01491691    0.54418702
    0.06671538    0.01442642    0.74246175
    0.56671538    0.01442642    0.74246175
    0.34192968    0.99104493    0.87561951
    0.84192968    0.99104493    0.87561951
    0.41452071    0.75022543    0.69379739
    0.91452071    0.75022543    0.69379739
    0.43392542    0.19656959    0.82663133
    0.93392542    0.19656959    0.82663133
    0.48878901    0.87660882    0.99424880
    0.98878901    0.87660882    0.99424880
    0.06671347    0.51443472    0.24245209
    0.56671347    0.51443472    0.24245209
    0.47350098    0.51491259    0.04418020
    0.97350098    0.51491259    0.04418020
    0.43392372    0.69657280    0.32662894
    0.93392372    0.69657280    0.32662894
    0.23879336    0.66846698    0.70238858
    0.73879336    0.66846698    0.70238858
    0.48878915    0.37661449    0.49424356
    0.98878915    0.37661449    0.49424356
    0.34192676    0.49104709    0.37560267
    0.84192676    0.49104709    0.37560267
    0.57787574    0.67694904    0.03772304
    0.32564270    0.70428084    0.03175979
    0.82564270    0.70428084    0.03175979
    0.32564611    0.20427868    0.53176085
    0.82564611    0.20427868    0.53176085
    0.07564352    0.70598423    0.53005321
    0.57564352    0.70598423    0.53005321
    0.07564457    0.20598415    0.03005468
    0.57564457    0.20598415    0.03005468
    0.61291526    0.74780263    0.10764356
    0.54262199    0.60599125    0.11201036
    0.61332756    0.60368597   -0.03457903
    0.54263816    0.75031632   -0.03418273
    0.13900467    0.06920128    0.92443274
    0.63900467    0.06920128    0.92443274
    0.00760365    0.08608996    0.13991178
    0.50760365    0.08608996    0.13991178
    0.25760386    0.81414194    0.91186443
    0.75760386    0.81414194    0.91186443
    0.38432307    0.83959474    0.13966866
    0.88432307    0.83959474    0.13966866
    0.20257004    0.95118587    0.28865980
    0.70257004    0.95118587    0.28865980
    0.13900177    0.56920086    0.42442770
    0.63900177    0.56920086    0.42442770
    0.00760257    0.58609108    0.63991133
    0.50760257    0.58609108    0.63991133
    0.25760639    0.31413969    0.41186693
    0.75760639    0.31413969    0.41186693
    0.38432675    0.33959114    0.63967051
    0.88432675    0.33959114    0.63967051
    0.20257072    0.45118229    0.78865494
    0.70257072    0.45118229    0.78865494
    0.38900483    0.09865325    0.39497883
    0.88900483    0.09865325    0.39497883
    0.27528580    0.07012348    0.66375944
    0.77528580    0.07012348    0.66375944
    0.02528607    0.83798930    0.39590044
    0.52528607    0.83798930    0.39590044
    0.13432491    0.81388435    0.66537317
    0.63432491    0.81388435    0.66537317
    0.45257058    0.96287783    0.77696204
    0.95257058    0.96287783    0.77696204
    0.38900135    0.59865389    0.89497866
    0.88900135    0.59865389    0.89497866
    0.27528017    0.57013015    0.16375969
    0.77528017    0.57013015    0.16375969
    0.02528791    0.33798737    0.89589895
    0.52528791    0.33798737    0.89589895
    0.13432355    0.31388708    0.16537642
    0.63432355    0.31388708    0.16537642
    0.45256916    0.46288118    0.27695644
    0.95256916    0.46288118    0.27695644
    0.07787574    0.67694904    0.03772304
    0.07787759    0.17694708    0.53772974
    0.57787759    0.17694708    0.53772974
    0.32787574    0.71194514    0.50272342
    0.82787574    0.71194514    0.50272342
    0.32787661    0.21194823    0.00272565
    0.82787661    0.21194823    0.00272565
Direct configuration=       3
    0.22351884    0.71838857    0.34072282
    0.72350706    0.71839986    0.34071250
    0.23880060    0.16850034    0.20237925
    0.73878192    0.16851098    0.20237773
    0.16452375    0.86800548    0.07598628
    0.66487712    0.86883533    0.07587471
    0.41453055    0.25022788    0.19379031
    0.91451155    0.25020656    0.19378009
    0.18391304    0.00085850    0.52237966
    0.68390274    0.00086331    0.52238785
    0.31673133    0.91666942    0.34024022
    0.81671570    0.91666804    0.34024625
    0.22351678    0.21838552    0.84071538
    0.72350224    0.21840063    0.84070131
    0.31673335    0.41667580    0.84023561
    0.81670994    0.41667397    0.84022938
    0.09192003    0.04986581    0.31681333
    0.59192028    0.04988017    0.31681500
    0.09192056    0.54986630    0.81680784
    0.59184704    0.54942543    0.81591071
    0.16452263    0.36800765    0.57598026
    0.66452137    0.36800633    0.57599659
    0.18391540    0.50085233    0.02237730
    0.68407903    0.50055793    0.02237234
    0.47352258    0.01494635    0.54415538
    0.97351056    0.01494309    0.54416955
    0.06672306    0.01445017    0.74245844
    0.56672558    0.01445665    0.74245448
    0.34191937    0.99104343    0.87563300
    0.84190882    0.99103549    0.87562580
    0.41452170    0.75020406    0.69378287
    0.91450930    0.75020506    0.69378489
    0.43392723    0.19661902    0.82664418
    0.93390743    0.19660211    0.82664378
    0.48848977    0.87732989    0.99433644
    0.98878317    0.87659845    0.99427846
    0.06672119    0.51445831    0.24244859
    0.56679238    0.51381693    0.24323521
    0.47333613    0.51465821    0.04414949
    0.97350637    0.51494178    0.04416002
    0.43390980    0.69657464    0.32665059
    0.93390538    0.69660339    0.32664151
    0.23880088    0.66849890    0.70237440
    0.73878882    0.66848628    0.70238063
    0.48878805    0.37660646    0.49425248
    0.98878511    0.37660510    0.49427478
    0.34193353    0.49104352    0.37560389
    0.84190550    0.49105040    0.37560961
    0.57791976    0.67735628    0.03773696
    0.32566280    0.70428336    0.03178729
    0.82560858    0.70428302    0.03176786
    0.32568725    0.20430487    0.53177831
    0.82559759    0.20429069    0.53180856
    0.07563949    0.70601454    0.53006598
    0.57564609    0.70601274    0.53006883
    0.07564077    0.20601099    0.03006593
    0.57564589    0.20600910    0.03005379
    0.61271368    0.74719731    0.10820540
    0.54251127    0.60647502    0.11173514
    0.61344894    0.60396944   -0.03416735
    0.54275751    0.74984390   -0.03471273
    0.13896778    0.06924539    0.92450219
    0.63897245    0.06923113    0.92449958
    0.00764077    0.08612111    0.13985767
    0.50763188    0.08610195    0.13986570
    0.25762820    0.81409437    0.91188536
    0.75764348    0.81409427    0.91189952
    0.38429610    0.83950738    0.13961225
    0.88430997    0.83952891    0.13961433
    0.20256624    0.95118195    0.28862763
    0.70259198    0.95117757    0.28860293
    0.13896391    0.56924017    0.42449742
    0.63896462    0.56925717    0.42446004
    0.00764030    0.58611894    0.63985504
    0.50763635    0.58611819    0.63989873
    0.25763191    0.31408533    0.41189576
    0.75766039    0.31407223    0.41190221
    0.38428064    0.33948942    0.63959630
    0.88430941    0.33951228    0.63959487
    0.20256638    0.45117449    0.78862207
    0.70262138    0.45110721    0.78853638
    0.38895188    0.09873865    0.39504247
    0.88898167    0.09871956    0.39501419
    0.27530317    0.07021638    0.66367232
    0.77533123    0.07024569    0.66364349
    0.02531575    0.83789957    0.39599899
    0.52529409    0.83791452    0.39598836
    0.13429478    0.81381692    0.66529932
    0.63430888    0.81382909    0.66529944
    0.45256294    0.96285368    0.77697872
    0.95258675    0.96284634    0.77695295
    0.38896598    0.59872781    0.89502940
    0.88897392    0.59871569    0.89501802
    0.27530143    0.57022576    0.16367424
    0.77530933    0.57024226    0.16367559
    0.02531775    0.33789542    0.89599479
    0.52529687    0.33791794    0.89596025
    0.13429355    0.31381859    0.16530567
    0.63430168    0.31384293    0.16532455
    0.45251604    0.46278916    0.27705643
    0.95258567    0.46284374    0.27694877
    0.07788135    0.67693347    0.03772395
    0.07788342    0.17693182    0.53773055
    0.57788043    0.17693846    0.53773171
    0.32787457    0.71195130    0.50270952
    0.82788686    0.71194541    0.50270916
    0.32787539    0.21194766    0.00271314
    0.82788954    0.21194699    0.00271357
Direct configuration=       4
    0.22355483    0.71834498    0.34077862
    0.72351980    0.71837849    0.34074548
    0.23881719    0.16856092    0.20236003
    0.73876255    0.16859363    0.20235593
    0.16452710    0.86797894    0.07594865
    0.66555088    0.87038430    0.07562812
    0.41454686    0.25023285    0.19377916
    0.91449163    0.25017179    0.19374807
    0.18389787    0.00087757    0.52243218
    0.68386766    0.00089149    0.52245560
    0.31676402    0.91664857    0.34029013
    0.81672097    0.91664583    0.34030798
    0.22354718    0.21834524    0.84077661
    0.72350473    0.21838817    0.84073365
    0.31676836    0.41667472    0.84028673
    0.81670301    0.41666851    0.84026596
    0.09189791    0.04987747    0.31680471
    0.59189914    0.04991790    0.31680820
    0.09189780    0.54987732    0.81679859
    0.59169389    0.54857692    0.81420317
    0.16452368    0.36798183    0.57594118
    0.66452151    0.36797682    0.57598586
    0.18390417    0.50087684    0.02243479
    0.68438732    0.49999864    0.02241076
    0.47355997    0.01500532    0.54409362
    0.97352485    0.01499619    0.54413484
    0.06673850    0.01449747    0.74245221
    0.56674499    0.01451385    0.74244253
    0.34189756    0.99104074    0.87565703
    0.84186979    0.99101627    0.87563710
    0.41452372    0.75016181    0.69375504
    0.91448765    0.75016403    0.69376045
    0.43393013    0.19671385    0.82666846
    0.93387209    0.19666411    0.82666795
    0.48791783    0.87871394    0.99450707
    0.98877146    0.87657845    0.99433657
    0.06673655    0.51450509    0.24244207
    0.56692934    0.51262088    0.24471917
    0.47301695    0.51415512    0.04410242
    0.97351703    0.51500036    0.04412075
    0.43388316    0.69657585    0.32669155
    0.93386943    0.69666123    0.32666608
    0.23881513    0.66856125    0.70234722
    0.73878003    0.66852359    0.70236550
    0.48878376    0.37658932    0.49427436
    0.98877698    0.37658652    0.49433573
    0.34194453    0.49103457    0.37560703
    0.84186538    0.49105651    0.37562211
    0.57797881    0.67801684    0.03773331
    0.32569468    0.70429268    0.03182811
    0.82555407    0.70429308    0.03177802
    0.32575273    0.20435271    0.53180525
    0.82552026    0.20431782    0.53188242
    0.07563293    0.70606264    0.53009162
    0.57564897    0.70606945    0.53009682
    0.07563462    0.20605276    0.03008976
    0.57564640    0.20605468    0.03005383
    0.61238058    0.74617486    0.10939009
    0.54228840    0.60738862    0.11124224
    0.61369557    0.60449431   -0.03341712
    0.54296192    0.74901737   -0.03580667
    0.13890033    0.06932356    0.92463001
    0.63891359    0.06929267    0.92461502
    0.00770747    0.08617323    0.13976144
    0.50768340    0.08612790    0.13978715
    0.25767430    0.81400619    0.91192236
    0.75771573    0.81401312    0.91194791
    0.38424705    0.83935052    0.13952058
    0.88428528    0.83940572    0.13951431
    0.20255990    0.95117373    0.28856619
    0.70263675    0.95116940    0.28850624
    0.13889447    0.56930946    0.42462605
    0.63890178    0.56936120    0.42453121
    0.00770805    0.58616452    0.63975494
    0.50769347    0.58616532    0.63986886
    0.25768027    0.31398532    0.41194756
    0.75775466    0.31395647    0.41195524
    0.38420089    0.33931265    0.63947029
    0.88427796    0.33936723    0.63945657
    0.20255896    0.45115926    0.78855976
    0.70272178    0.45095796    0.78829993
    0.38885813    0.09889076    0.39515016
    0.88893600    0.09884654    0.39508225
    0.27533482    0.07039119    0.66351106
    0.77540943    0.07046054    0.66344112
    0.02536784    0.83773844    0.39617826
    0.52530547    0.83777849    0.39615504
    0.13424140    0.81369655    0.66516831
    0.63428250    0.81372983    0.66516363
    0.45254663    0.96281476    0.77699970
    0.95261726    0.96278597    0.77693603
    0.38890079    0.59886371    0.89511293
    0.88892130    0.59883111    0.89508944
    0.27533957    0.57040242    0.16351995
    0.77536129    0.57044643    0.16353158
    0.02537013    0.33773030    0.89616845
    0.52530984    0.33778593    0.89607017
    0.13424035    0.31369611    0.16518032
    0.63426520    0.31375423    0.16523353
    0.45241158    0.46260581    0.27725588
    0.95261702    0.46277222    0.27693422
    0.07789265    0.67690189    0.03772561
    0.07789517    0.17690086    0.53773217
    0.57788639    0.17692145    0.53773546
    0.32787306    0.71196339    0.50268151
    0.82790823    0.71194595    0.50268031
    0.32787391    0.21194668    0.00268829
    0.82791435    0.21194444    0.00268897
Direct configuration=       5
    0.22360587    0.71828081    0.34086454
    0.72353642    0.71834717    0.34079001
    0.23884038    0.16864876    0.20233527
    0.73873529    0.16871732    0.20232901
    0.16453296    0.86793993    0.07589097
    0.66647795    0.87251171    0.07528781
    0.41456922    0.25022932    0.19376729
    0.91446425    0.25011749    0.19370308
    0.18387505    0.00090677    0.52250258
    0.68381687    0.00093337    0.52254633
    0.31680822    0.91661966    0.34036407
    0.81673427    0.91661854    0.34039946
    0.22359059    0.21828528    0.84086862
    0.72350942    0.21836262    0.84077927
    0.31681554    0.41667524    0.84036173
    0.81670066    0.41666000    0.84031339
    0.09186628    0.04989248    0.31679180
    0.59187040    0.04996453    0.31679383
    0.09186538    0.54989096    0.81678459
    0.59151042    0.54734656    0.81187919
    0.16452643    0.36794245    0.57588094
    0.66452755    0.36792818    0.57595533
    0.18388645    0.50091276    0.02251179
    0.68483156    0.49916502    0.02243365
    0.47361259    0.01509511    0.54400446
    0.97354529    0.01507847    0.54408326
    0.06676193    0.01456845    0.74244390
    0.56677147    0.01459064    0.74243184
    0.34186135    0.99103790    0.87568480
    0.84181828    0.99098638    0.87564997
    0.41452699    0.75009940    0.69371636
    0.91445815    0.75010141    0.69372496
    0.43393230    0.19684573    0.82670072
    0.93382040    0.19674890    0.82670256
    0.48712302    0.88065348    0.99475411
    0.98875369    0.87655032    0.99442097
    0.06675952    0.51457474    0.24243355
    0.56707925    0.51091464    0.24674257
    0.47256312    0.51340966    0.04407115
    0.97353280    0.51508948    0.04406454
    0.43384633    0.69657051    0.32674698
    0.93381711    0.69673894    0.32670182
    0.23883451    0.66865111    0.70230943
    0.73876739    0.66857654    0.70234477
    0.48877110    0.37655977    0.49432004
    0.98876455    0.37655909    0.49442361
    0.34195375    0.49101608    0.37561435
    0.84181134    0.49106447    0.37563671
    0.57800382    0.67867416    0.03765790
    0.32572189    0.70431746    0.03185255
    0.82550615    0.70432283    0.03177769
    0.32580899    0.20441321    0.53182469
    0.82545314    0.20436682    0.53193826
    0.07562680    0.70610211    0.53013097
    0.57564752    0.70615353    0.53013109
    0.07562891    0.20608480    0.03012929
    0.57564177    0.20611085    0.03005835
    0.61204068    0.74508868    0.11131912
    0.54194066    0.60861435    0.11065426
    0.61408231    0.60516767   -0.03247812
    0.54318982    0.74806671   -0.03753971
    0.13881634    0.06941321    0.92479208
    0.63883976    0.06939272    0.92473822
    0.00778727    0.08622347    0.13964959
    0.50774733    0.08617409    0.13970755
    0.25773562    0.81389407    0.91196299
    0.75780683    0.81392864    0.91196148
    0.38418558    0.83916179    0.13944000
    0.88425311    0.83924496    0.13938822
    0.20255374    0.95116033    0.28848163
    0.70270722    0.95118146    0.28840943
    0.13880733    0.56938771    0.42478996
    0.63883887    0.56949529    0.42465842
    0.00778908    0.58620513    0.63963839
    0.50774972    0.58621770    0.63980797
    0.25774471    0.31386010    0.41200774
    0.75786027    0.31383351    0.41198795
    0.38411376    0.33911748    0.63934031
    0.88424017    0.33918465    0.63928414
    0.20255128    0.45113732    0.78847534
    0.70287069    0.45073536    0.78794459
    0.38874921    0.09907000    0.39526001
    0.88887061    0.09902057    0.39517455
    0.27537316    0.07062345    0.66330453
    0.77549386    0.07070642    0.66321400
    0.02542657    0.83754509    0.39640018
    0.52530945    0.83761129    0.39638096
    0.13417970    0.81355442    0.66501644
    0.63425804    0.81361094    0.66499035
    0.45251864    0.96278289    0.77699577
    0.95265834    0.96270224    0.77691399
    0.38881700    0.59903672    0.89518988
    0.88884902    0.59898158    0.89517556
    0.27538489    0.57062901    0.16333270
    0.77542339    0.57070145    0.16337933
    0.02542925    0.33753195    0.89638164
    0.52531569    0.33760608    0.89620090
    0.13417874    0.31355087    0.16503551
    0.63423012    0.31361903    0.16513118
    0.45225904    0.46233102    0.27755527
    0.95265983    0.46267361    0.27691450
    0.07791000    0.67685294    0.03772768
    0.07791316    0.17685279    0.53773454
    0.57789614    0.17689662    0.53774057
    0.32787299    0.71198100    0.50263859
    0.82793828    0.71194677    0.50263578
    0.32787428    0.21194566    0.00265131
    0.82794905    0.21194054    0.00265059
Direct configuration=       6
    0.22366802    0.71819888    0.34098363
    0.72355310    0.71830898    0.34083751
    0.23886785    0.16875868    0.20231021
    0.73870300    0.16888130    0.20230612
    0.16454246    0.86788940    0.07581254
    0.66756719    0.87499814    0.07487925
    0.41459412    0.25019968    0.19376176
    0.91443285    0.25004229    0.19364828
    0.18384428    0.00094617    0.52257850
    0.68375340    0.00098899    0.52264647
    0.31685739    0.91658615    0.34046063
    0.81676194    0.91659335    0.34052041
    0.22364396    0.21820794    0.84099189
    0.72351847    0.21831345    0.84083232
    0.31686758    0.41668028    0.84045738
    0.81671395    0.41664672    0.84036187
    0.09182774    0.04990660    0.31677475
    0.59183894    0.05000475    0.31676679
    0.09182601    0.54990241    0.81676580
    0.59135771    0.54577614    0.80923458
    0.16453237    0.36788880    0.57579843
    0.66454805    0.36785208    0.57588300
    0.18386112    0.50095843    0.02259515
    0.68538752    0.49806411    0.02239592
    0.47367550    0.01521859    0.54389245
    0.97357083    0.01519266    0.54401680
    0.06679318    0.01466272    0.74243482
    0.56680122    0.01467284    0.74243200
    0.34180675    0.99103753    0.87570420
    0.84176355    0.99094502    0.87565665
    0.41453214    0.75001915    0.69367071
    0.91442468    0.75001698    0.69367947
    0.43392997    0.19699969    0.82673349
    0.93375430    0.19684387    0.82674586
    0.48618116    0.88298366    0.99506945
    0.98872967    0.87651698    0.99452721
    0.06678955    0.51466619    0.24242460
    0.56717209    0.50879854    0.24905621
    0.47200751    0.51243489    0.04410664
    0.97355338    0.51521023    0.04399559
    0.43380379    0.69654820    0.32680887
    0.93375064    0.69682278    0.32674786
    0.23885642    0.66876235    0.70226479
    0.73875122    0.66864166    0.70232085
    0.48874088    0.37651076    0.49441075
    0.98874773    0.37652410    0.49453313
    0.34195070    0.49098210    0.37563132
    0.84175135    0.49107319    0.37564632
    0.57797496    0.67918812    0.03750841
    0.32572605    0.70436715    0.03182287
    0.82549434    0.70438528    0.03175100
    0.32581829    0.20447601    0.53181418
    0.82543885    0.20444363    0.53192299
    0.07562406    0.70609850    0.53018588
    0.57563597    0.70626102    0.53016548
    0.07562644    0.20607631    0.03018839
    0.57562712    0.20616076    0.03007081
    0.61179350    0.74430885    0.11402763
    0.54143503    0.60994714    0.11015867
    0.61463428    0.60583541   -0.03156902
    0.54338623    0.74727271   -0.03995744
    0.13873882    0.06947762    0.92494940
    0.63876823    0.06954762    0.92480317
    0.00785429    0.08623594    0.13956407
    0.50780578    0.08625508    0.13968027
    0.25779790    0.81379066    0.91198212
    0.75789976    0.81388246    0.91186937
    0.38412320    0.83899532    0.13943907
    0.88422295    0.83908443    0.13927081
    0.20255199    0.95114080    0.28838515
    0.70280852    0.95124808    0.28838079
    0.13872541    0.56944069    0.42495059
    0.63881607    0.56963369    0.42487198
    0.00785732    0.58620580    0.63954819
    0.50776460    0.58625515    0.63968644
    0.25781036    0.31374760    0.41204749
    0.75793693    0.31376241    0.41194687
    0.38405525    0.33898297    0.63927295
    0.88421085    0.33901448    0.63912427
    0.20254768    0.45110984    0.78838159
    0.70306494    0.45044314    0.78747190
    0.38866161    0.09921933    0.39531330
    0.88879611    0.09921203    0.39526689
    0.27540358    0.07086935    0.66310203
    0.77554879    0.07090038    0.66304485
    0.02546814    0.83737777    0.39660772
    0.52528861    0.83746282    0.39663277
    0.13413226    0.81343746    0.66489893
    0.63425310    0.81351043    0.66481728
    0.45247294    0.96279547    0.77691799
    0.95270404    0.96260531    0.77689119
    0.38873023    0.59921015    0.89520171
    0.88876940    0.59913327    0.89524441
    0.27542180    0.57085662    0.16316734
    0.77548008    0.57095042    0.16329191
    0.02547152    0.33735910    0.89657781
    0.52529722    0.33740354    0.89630883
    0.13413113    0.31342985    0.16492481
    0.63422080    0.31343378    0.16505992
    0.45206542    0.46196713    0.27795179
    0.95270858    0.46256006    0.27689272
    0.07793394    0.67678492    0.03772950
    0.07793791    0.17678570    0.53773743
    0.57791057    0.17686591    0.53774599
    0.32787683    0.71200310    0.50257990
    0.82797513    0.71194776    0.50257395
    0.32787970    0.21194507    0.00260314
    0.82799065    0.21193554    0.00259701
Direct configuration=       7
    0.22373594    0.71810617    0.34113923
    0.72356398    0.71827311    0.34087259
    0.23889645    0.16888089    0.20229125
    0.73867085    0.16908321    0.20230232
    0.16455711    0.86782851    0.07571530
    0.66871393    0.87758127    0.07442774
    0.41461494    0.25011599    0.19377336
    0.91440229    0.24994830    0.19358594
    0.18380491    0.00099391    0.52264133
    0.68368250    0.00105951    0.52274205
    0.31690244    0.91655318    0.34057754
    0.81681061    0.91657730    0.34067259
    0.22370276    0.21812037    0.84114695
    0.72353715    0.21822577    0.84087989
    0.31691428    0.41669341    0.84056684
    0.81675752    0.41662335    0.84039811
    0.09178696    0.04991217    0.31675417
    0.59181307    0.05001453    0.31672236
    0.09178440    0.54990334    0.81674254
    0.59131451    0.54391085    0.80664916
    0.16454325    0.36782047    0.57569542
    0.66459554    0.36773250    0.57573566
    0.18382710    0.50101040    0.02266599
    0.68602032    0.49671104    0.02224236
    0.47374160    0.01538150    0.54376311
    0.97360055    0.01533986    0.54394150
    0.06683058    0.01477848    0.74242651
    0.56682809    0.01473690    0.74245439
    0.34173032    0.99104546    0.87569705
    0.84171789    0.99089322    0.87564205
    0.41454047    0.74992732    0.69362268
    0.91439230    0.74991380    0.69362439
    0.43391624    0.19715371    0.82675283
    0.93367703    0.19692873    0.82679613
    0.48518896    0.88548936    0.99544124
    0.98869955    0.87648307    0.99464721
    0.06682479    0.51477690    0.24241690
    0.56712478    0.50639749    0.25134999
    0.47139555    0.51125610    0.04427013